# vtk DataFile Version 3.0
 BEAM 

ASCII
DATASET UNSTRUCTURED_GRID
POINTS       169 double
      3.000000e+01     -1.000000e+01      1.414214e+01
      2.000000e+01     -2.000000e+01      0.000000e+00
      1.000000e+01     -3.000000e+01      1.414214e+01
      2.000000e+01     -4.000000e+01      0.000000e+00
      0.000000e+00     -4.000000e+01      0.000000e+00
     -2.000000e+01     -4.000000e+01      0.000000e+00
     -2.000000e+01     -2.000000e+01      0.000000e+00
     -1.000000e+01     -1.000000e+01      1.414214e+01
      0.000000e+00      0.000000e+00      0.000000e+00
     -1.000000e+01      1.000000e+01      1.414214e+01
      0.000000e+00      2.000000e+01      0.000000e+00
      1.000000e+01      1.000000e+01      1.414214e+01
      1.000000e+01      3.000000e+01      1.414214e+01
      2.000000e+01      4.000000e+01      0.000000e+00
      4.000000e+01      4.000000e+01      0.000000e+00
      3.000000e+01      3.000000e+01      1.414214e+01
      4.000000e+01      2.000000e+01      0.000000e+00
      2.000000e+01      2.000000e+01      0.000000e+00
      2.000000e+01      0.000000e+00      0.000000e+00
      4.000000e+01     -2.000000e+01      0.000000e+00
      4.000000e+01      0.000000e+00      0.000000e+00
      3.000000e+01      1.000000e+01      1.414214e+01
      0.000000e+00     -2.000000e+01      0.000000e+00
     -1.000000e+01     -3.000000e+01      1.414214e+01
      4.000000e+01     -4.000000e+01      0.000000e+00
      3.000000e+01     -3.000000e+01      1.414214e+01
      1.000000e+01     -1.000000e+01      1.414214e+01
     -3.000000e+01     -3.000000e+01      1.414214e+01
     -4.000000e+01     -2.000000e+01      0.000000e+00
     -3.000000e+01     -1.000000e+01      1.414214e+01
     -4.000000e+01      0.000000e+00      0.000000e+00
     -3.000000e+01      1.000000e+01      1.414214e+01
     -4.000000e+01      2.000000e+01      0.000000e+00
     -3.000000e+01      3.000000e+01      1.414214e+01
     -2.000000e+01      4.000000e+01      0.000000e+00
      0.000000e+00      4.000000e+01      0.000000e+00
     -2.000000e+01      0.000000e+00      0.000000e+00
     -2.000000e+01      2.000000e+01      0.000000e+00
     -1.000000e+01      3.000000e+01      1.414214e+01
     -4.000000e+01     -4.000000e+01      0.000000e+00
     -4.000000e+01      4.000000e+01      0.000000e+00
      2.500000e+01     -1.500000e+01      7.071068e+00
      1.500000e+01     -2.500000e+01      7.071068e+00
      1.500000e+01     -3.500000e+01      7.071068e+00
      1.000000e+01     -4.000000e+01      0.000000e+00
     -1.000000e+01     -4.000000e+01      0.000000e+00
     -2.000000e+01     -3.000000e+01      0.000000e+00
     -1.500000e+01     -1.500000e+01      7.071068e+00
     -5.000000e+00     -5.000000e+00      7.071068e+00
     -5.000000e+00      5.000000e+00      7.071068e+00
     -5.000000e+00      1.500000e+01      7.071068e+00
      5.000000e+00      1.500000e+01      7.071068e+00
      1.000000e+01      2.000000e+01      1.414214e+01
      1.500000e+01      3.500000e+01      7.071068e+00
      3.000000e+01      4.000000e+01      0.000000e+00
      3.500000e+01      3.500000e+01      7.071068e+00
      3.500000e+01      2.500000e+01      7.071068e+00
      3.000000e+01      2.000000e+01      0.000000e+00
      2.000000e+01      1.000000e+01      0.000000e+00
      2.000000e+01     -1.000000e+01      0.000000e+00
      3.000000e+01     -2.000000e+01      0.000000e+00
      4.000000e+01     -1.000000e+01      0.000000e+00
      4.000000e+01      1.000000e+01      0.000000e+00
      3.500000e+01      1.500000e+01      7.071068e+00
      2.500000e+01      1.500000e+01      7.071068e+00
      2.500000e+01      2.500000e+01      7.071068e+00
      2.500000e+01      3.500000e+01      7.071068e+00
      3.500000e+01     -1.500000e+01      7.071068e+00
      3.500000e+01     -5.000000e+00      7.071068e+00
      1.000000e+01     -2.000000e+01      0.000000e+00
      0.000000e+00     -3.000000e+01      0.000000e+00
      5.000000e+00     -3.500000e+01      7.071068e+00
      5.000000e+00     -2.500000e+01      7.071068e+00
     -5.000000e+00     -2.500000e+01      7.071068e+00
     -5.000000e+00     -3.500000e+01      7.071068e+00
      3.000000e+01     -4.000000e+01      0.000000e+00
      2.000000e+01     -3.000000e+01      0.000000e+00
      2.500000e+01     -2.500000e+01      7.071068e+00
      3.000000e+01     -2.000000e+01      1.414214e+01
      2.000000e+01     -1.000000e+01      1.414214e+01
      1.000000e+01      0.000000e+00      1.414214e+01
      1.500000e+01      5.000000e+00      7.071068e+00
      2.500000e+01      5.000000e+00      7.071068e+00
      3.500000e+01      5.000000e+00      7.071068e+00
     -1.500000e+01     -3.500000e+01      7.071068e+00
     -1.500000e+01     -2.500000e+01      7.071068e+00
     -2.500000e+01     -2.500000e+01      7.071068e+00
     -3.500000e+01     -2.500000e+01      7.071068e+00
     -3.500000e+01     -1.500000e+01      7.071068e+00
     -3.500000e+01     -5.000000e+00      7.071068e+00
     -3.500000e+01      5.000000e+00      7.071068e+00
     -3.500000e+01      1.500000e+01      7.071068e+00
     -3.500000e+01      2.500000e+01      7.071068e+00
     -2.500000e+01      3.500000e+01      7.071068e+00
     -1.000000e+01      4.000000e+01      0.000000e+00
      1.000000e+01      4.000000e+01      0.000000e+00
      2.000000e+01      3.000000e+01      0.000000e+00
     -5.000000e+00     -1.500000e+01      7.071068e+00
     -1.500000e+01     -5.000000e+00      7.071068e+00
     -1.500000e+01      5.000000e+00      7.071068e+00
      5.000000e+00      5.000000e+00      7.071068e+00
      1.500000e+01      1.500000e+01      7.071068e+00
     -1.500000e+01      1.500000e+01      7.071068e+00
     -1.000000e+01      2.000000e+01      1.414214e+01
     -5.000000e+00      3.500000e+01      7.071068e+00
      5.000000e+00      2.500000e+01      7.071068e+00
      5.000000e+00      3.500000e+01      7.071068e+00
      0.000000e+00      1.000000e+01      1.414214e+01
     -1.000000e+01      0.000000e+00      1.414214e+01
     -2.000000e+01     -1.000000e+01      1.414214e+01
     -3.000000e+01     -2.000000e+01      1.414214e+01
     -2.000000e+01     -3.000000e+01      1.414214e+01
     -1.000000e+01     -2.000000e+01      1.414214e+01
      1.500000e+01      2.500000e+01      7.071068e+00
      4.000000e+01      3.000000e+01      0.000000e+00
      1.500000e+01     -5.000000e+00      7.071068e+00
      5.000000e+00     -1.500000e+01      7.071068e+00
      4.000000e+01     -3.000000e+01      0.000000e+00
      3.000000e+01      0.000000e+00      0.000000e+00
      1.000000e+01      0.000000e+00      0.000000e+00
      0.000000e+00     -1.000000e+01      0.000000e+00
      2.000000e+01      1.000000e+01      1.414214e+01
      3.000000e+01      0.000000e+00      1.414214e+01
      2.000000e+01      3.000000e+01      1.414214e+01
      3.500000e+01     -2.500000e+01      7.071068e+00
      2.500000e+01     -5.000000e+00      7.071068e+00
      0.000000e+00     -3.000000e+01      1.414214e+01
     -1.000000e+01     -2.000000e+01      0.000000e+00
      3.500000e+01     -3.500000e+01      7.071068e+00
      2.500000e+01     -3.500000e+01      7.071068e+00
      1.500000e+01     -1.500000e+01      7.071068e+00
      2.000000e+01     -3.000000e+01      1.414214e+01
      1.000000e+01     -2.000000e+01      1.414214e+01
      0.000000e+00     -1.000000e+01      1.414214e+01
     -2.500000e+01     -3.500000e+01      7.071068e+00
     -3.500000e+01     -3.500000e+01      7.071068e+00
     -3.000000e+01     -4.000000e+01      0.000000e+00
     -2.500000e+01     -1.500000e+01      7.071068e+00
     -2.500000e+01     -5.000000e+00      7.071068e+00
     -2.500000e+01      5.000000e+00      7.071068e+00
     -2.500000e+01      1.500000e+01      7.071068e+00
     -1.500000e+01      2.500000e+01      7.071068e+00
     -1.500000e+01      3.500000e+01      7.071068e+00
     -4.000000e+01     -1.000000e+01      0.000000e+00
     -4.000000e+01     -3.000000e+01      0.000000e+00
     -3.000000e+01      0.000000e+00      1.414214e+01
     -3.000000e+01      2.000000e+01      1.414214e+01
     -2.500000e+01      2.500000e+01      7.071068e+00
     -3.000000e+01      2.000000e+01      0.000000e+00
     -4.000000e+01      1.000000e+01      0.000000e+00
     -3.500000e+01      3.500000e+01      7.071068e+00
     -3.000000e+01      4.000000e+01      0.000000e+00
     -2.000000e+01      3.000000e+01      0.000000e+00
     -1.000000e+01      2.000000e+01      0.000000e+00
      0.000000e+00      3.000000e+01      0.000000e+00
     -1.000000e+01      0.000000e+00      0.000000e+00
     -2.000000e+01      1.000000e+01      0.000000e+00
     -2.000000e+01      1.000000e+01      1.414214e+01
     -5.000000e+00      2.500000e+01      7.071068e+00
      0.000000e+00      3.000000e+01      1.414214e+01
      1.000000e+01      2.000000e+01      0.000000e+00
      5.000000e+00     -5.000000e+00      7.071068e+00
      3.000000e+01      2.000000e+01      1.414214e+01
     -2.000000e+01     -1.000000e+01      0.000000e+00
     -3.000000e+01      0.000000e+00      0.000000e+00
     -3.000000e+01     -2.000000e+01      0.000000e+00
     -4.000000e+01      3.000000e+01      0.000000e+00
     -2.000000e+01      3.000000e+01      1.414214e+01
      0.000000e+00      1.000000e+01      0.000000e+00
CELLS     256  768
2       0   41
2      41    1
2       2   42
2      42    1
2       2   43
2      43    3
2       3   44
2      44    4
2       4   45
2      45    5
2       6   46
2      46    5
2       7   47
2      47    6
2       7   48
2      48    8
2       9   49
2      49    8
2       9   50
2      50   10
2      11   51
2      51   10
2      12   52
2      52   11
2      12   53
2      53   13
2      13   54
2      54   14
2      15   55
2      55   14
2      15   56
2      56   16
2      17   57
2      57   16
2      17   58
2      58   18
2      18   59
2      59    1
2       1   60
2      60   19
2      20   61
2      61   19
2      16   62
2      62   20
2      21   63
2      63   16
2      21   64
2      64   17
2      15   65
2      65   17
2      15   66
2      66   13
2       0   67
2      67   19
2       0   68
2      68   20
2      22   69
2      69    1
2      22   70
2      70    4
2       2   71
2      71    4
2       2   72
2      72   22
2      23   73
2      73   22
2      23   74
2      74    4
2      24   75
2      75    3
2       1   76
2      76    3
2      25   77
2      77    1
2      25   78
2      78    0
2      26   79
2      79    0
2      11   80
2      80   26
2      11   81
2      81   18
2      21   82
2      82   18
2      21   83
2      83   20
2      23   84
2      84    5
2      23   85
2      85    6
2      27   86
2      86    6
2      27   87
2      87   28
2      29   88
2      88   28
2      29   89
2      89   30
2      31   90
2      90   30
2      31   91
2      91   32
2      33   92
2      92   32
2      34   93
2      93   33
2      34   94
2      94   35
2      35   95
2      95   13
2      13   96
2      96   17
2       7   97
2      97   22
2       7   98
2      98   36
2       9   99
2      99   36
2      11  100
2     100    8
2      11  101
2     101   17
2       9  102
2     102   37
2      38  103
2     103    9
2      38  104
2     104   35
2      12  105
2     105   10
2      12  106
2     106   35
2       9  107
2     107   11
2       9  108
2     108    7
2      29  109
2     109    7
2      29  110
2     110   27
2      27  111
2     111   23
2       7  112
2     112   23
2      12  113
2     113   17
2      14  114
2     114   16
2      26  115
2     115   18
2      26  116
2     116   22
2      19  117
2     117   24
2      18  118
2     118   20
2       8  119
2     119   18
2       8  120
2     120   22
2      11  121
2     121   21
2       0  122
2     122   21
2      15  123
2     123   12
2      25  124
2     124   19
2       0  125
2     125   18
2      23  126
2     126    2
2       6  127
2     127   22
2      25  128
2     128   24
2      25  129
2     129    3
2       1  130
2     130   26
2       2  131
2     131   25
2      26  132
2     132    2
2       7  133
2     133   26
2      27  134
2     134    5
2      27  135
2     135   39
2       5  136
2     136   39
2      29  137
2     137    6
2      29  138
2     138   36
2      31  139
2     139   36
2      31  140
2     140   37
2      38  141
2     141   37
2      38  142
2     142   34
2      30  143
2     143   28
2      39  144
2     144   28
2      31  145
2     145   29
2      33  146
2     146   31
2      33  147
2     147   37
2      32  148
2     148   37
2      32  149
2     149   30
2      40  150
2     150   33
2      40  151
2     151   34
2      34  152
2     152   37
2      37  153
2     153   10
2      35  154
2     154   10
2      36  155
2     155    8
2      37  156
2     156   36
2      31  157
2     157    9
2      38  158
2     158   10
2      12  159
2     159   38
2      10  160
2     160   17
2      26  161
2     161    8
2      21  162
2     162   15
2      36  163
2     163    6
2      30  164
2     164   36
2      28  165
2     165    6
2      32  166
2     166   40
2      38  167
2     167   33
2      10  168
2     168    8
 CELL_TYPES     256
 3
 3
 3
 3
 3
 3
 3
 3
 3
 3
 3
 3
 3
 3
 3
 3
 3
 3
 3
 3
 3
 3
 3
 3
 3
 3
 3
 3
 3
 3
 3
 3
 3
 3
 3
 3
 3
 3
 3
 3
 3
 3
 3
 3
 3
 3
 3
 3
 3
 3
 3
 3
 3
 3
 3
 3
 3
 3
 3
 3
 3
 3
 3
 3
 3
 3
 3
 3
 3
 3
 3
 3
 3
 3
 3
 3
 3
 3
 3
 3
 3
 3
 3
 3
 3
 3
 3
 3
 3
 3
 3
 3
 3
 3
 3
 3
 3
 3
 3
 3
 3
 3
 3
 3
 3
 3
 3
 3
 3
 3
 3
 3
 3
 3
 3
 3
 3
 3
 3
 3
 3
 3
 3
 3
 3
 3
 3
 3
 3
 3
 3
 3
 3
 3
 3
 3
 3
 3
 3
 3
 3
 3
 3
 3
 3
 3
 3
 3
 3
 3
 3
 3
 3
 3
 3
 3
 3
 3
 3
 3
 3
 3
 3
 3
 3
 3
 3
 3
 3
 3
 3
 3
 3
 3
 3
 3
 3
 3
 3
 3
 3
 3
 3
 3
 3
 3
 3
 3
 3
 3
 3
 3
 3
 3
 3
 3
 3
 3
 3
 3
 3
 3
 3
 3
 3
 3
 3
 3
 3
 3
 3
 3
 3
 3
 3
 3
 3
 3
 3
 3
 3
 3
 3
 3
 3
 3
 3
 3
 3
 3
 3
 3
 3
 3
 3
 3
 3
 3
 3
 3
 3
 3
 3
 3
 3
 3
 3
 3
 3
 3
 3
 3
 3
 3
 3
 3
CELL_DATA     256
POINT_DATA     169
FIELD Result          3
Displacement_Load_Case01            3           169 double
      2.006335e-09     -7.837798e-10      3.833421e-07
     -5.487136e-10      5.487136e-10      4.697861e-07
      7.837798e-10     -2.006335e-09      3.833421e-07
      3.923031e-11     -6.639689e-09      4.400040e-07
     -3.099791e-22     -4.153017e-09      5.155090e-07
     -3.923031e-11     -6.639689e-09      4.400040e-07
      5.487136e-10      5.487136e-10      4.697861e-07
     -1.215892e-09     -1.215892e-09      5.155752e-07
     -2.973640e-22      1.932501e-23      5.814488e-07
     -1.215892e-09      1.215892e-09      5.155752e-07
     -2.862212e-22      5.114023e-11      5.365885e-07
      1.215892e-09      1.215892e-09      5.155752e-07
      7.837798e-10      2.006335e-09      3.833421e-07
      3.923031e-11      6.639689e-09      4.400040e-07
      5.908471e-09      5.908471e-09      3.961021e-07
      0.000000e+00      0.000000e+00      0.000000e+00
      6.639689e-09      3.923031e-11      4.400040e-07
     -5.487136e-10     -5.487136e-10      4.697861e-07
      5.114023e-11     -8.943417e-23      5.365885e-07
      6.639689e-09     -3.923031e-11      4.400040e-07
      4.153017e-09     -1.586596e-22      5.155090e-07
      2.006335e-09      7.837798e-10      3.833421e-07
     -3.010291e-22     -5.114023e-11      5.365885e-07
     -7.837798e-10     -2.006335e-09      3.833421e-07
      5.908471e-09     -5.908471e-09      3.961021e-07
      0.000000e+00      0.000000e+00      0.000000e+00
      1.215892e-09     -1.215892e-09      5.155752e-07
      0.000000e+00      0.000000e+00      0.000000e+00
     -6.639689e-09     -3.923031e-11      4.400040e-07
     -2.006335e-09     -7.837798e-10      3.833421e-07
     -4.153017e-09      2.463324e-22      5.155090e-07
     -2.006335e-09      7.837798e-10      3.833421e-07
     -6.639689e-09      3.923031e-11      4.400040e-07
      0.000000e+00      0.000000e+00      0.000000e+00
     -3.923031e-11      6.639689e-09      4.400040e-07
     -2.161886e-22      4.153017e-09      5.155090e-07
     -5.114023e-11      2.841839e-22      5.365885e-07
      5.487136e-10     -5.487136e-10      4.697861e-07
     -7.837798e-10      2.006335e-09      3.833421e-07
     -5.908471e-09     -5.908471e-09      3.961021e-07
     -5.908471e-09      5.908471e-09      3.961021e-07
     -3.128770e-09      2.463281e-08      4.117907e-07
     -2.463281e-08      3.128770e-09      4.117907e-07
     -2.301679e-08      5.030590e-09      3.884928e-07
      1.961515e-11     -5.353995e-09      4.881836e-07
     -1.961515e-11     -5.353995e-09      4.881836e-07
      2.123843e-10     -3.045488e-09      4.471524e-07
      4.272253e-09      4.272253e-09      4.861670e-07
      1.018643e-08      1.018643e-08      5.637775e-07
      1.018643e-08     -1.018643e-08      5.637775e-07
      1.018643e-08     -5.653685e-09      5.292689e-07
     -1.018643e-08     -5.653685e-09      5.292689e-07
      8.835293e-10      1.611113e-09      4.483182e-07
     -2.301679e-08     -5.030590e-09      3.884928e-07
      2.973851e-09      6.316437e-09      4.100877e-07
      4.695001e-09      4.695001e-09      2.005129e-07
      4.054721e-09      7.413892e-09      2.152931e-07
      3.045488e-09     -2.123843e-10      4.471524e-07
     -2.487867e-10     -2.743568e-10      5.119392e-07
     -2.487867e-10      2.743568e-10      5.119392e-07
      3.045488e-09      2.123843e-10      4.471524e-07
      5.353995e-09     -1.961515e-11      4.881836e-07
      5.353995e-09      1.961515e-11      4.881836e-07
     -5.030590e-09     -2.301679e-08      3.884928e-07
     -3.128770e-09     -2.463281e-08      4.117907e-07
      5.914181e-09      5.914181e-09      2.261411e-07
      7.413892e-09      4.054721e-09      2.152931e-07
     -5.030590e-09      2.301679e-08      3.884928e-07
     -6.331498e-09      3.043068e-08      4.645657e-07
     -2.743568e-10      2.487867e-10      5.119392e-07
     -3.006285e-22     -2.102079e-09      5.204081e-07
     -3.043068e-08      6.331498e-09      4.645657e-07
     -3.054699e-08      4.393896e-09      4.856768e-07
      3.054699e-08      4.393896e-09      4.856768e-07
      3.043068e-08      6.331498e-09      4.645657e-07
      2.973851e-09     -6.316437e-09      4.100877e-07
     -2.123843e-10     -3.045488e-09      4.471524e-07
      5.914181e-09     -5.914181e-09      2.261411e-07
      8.868608e-10     -3.918899e-10      1.479991e-07
      1.611113e-09     -8.835293e-10      4.483182e-07
      1.215892e-09     -2.392620e-22      5.461063e-07
     -5.653685e-09     -1.018643e-08      5.292689e-07
     -4.393896e-09     -3.054699e-08      4.856768e-07
     -6.331498e-09     -3.043068e-08      4.645657e-07
      2.301679e-08      5.030590e-09      3.884928e-07
      2.463281e-08      3.128770e-09      4.117907e-07
     -5.914181e-09     -5.914181e-09      2.261411e-07
     -4.054721e-09     -7.413892e-09      2.152931e-07
      5.030590e-09      2.301679e-08      3.884928e-07
      6.331498e-09      3.043068e-08      4.645657e-07
      6.331498e-09     -3.043068e-08      4.645657e-07
      5.030590e-09     -2.301679e-08      3.884928e-07
     -4.054721e-09      7.413892e-09      2.152931e-07
     -7.413892e-09      4.054721e-09      2.152931e-07
     -1.961515e-11      5.353995e-09      4.881836e-07
      1.961515e-11      5.353995e-09      4.881836e-07
     -2.123843e-10      3.045488e-09      4.471524e-07
      1.018643e-08      5.653685e-09      5.292689e-07
      5.653685e-09      1.018643e-08      5.292689e-07
      5.653685e-09     -1.018643e-08      5.292689e-07
     -1.018643e-08     -1.018643e-08      5.637775e-07
     -4.272253e-09     -4.272253e-09      4.861670e-07
      4.272253e-09     -4.272253e-09      4.861670e-07
     -8.835293e-10      1.611113e-09      4.483182e-07
      3.043068e-08     -6.331498e-09      4.645657e-07
     -3.054699e-08     -4.393896e-09      4.856768e-07
     -3.043068e-08     -6.331498e-09      4.645657e-07
      8.830153e-23      1.215892e-09      5.461063e-07
     -1.215892e-09     -1.429471e-22      5.461063e-07
     -1.611113e-09     -8.835293e-10      4.483182e-07
     -8.868608e-10     -3.918899e-10      1.479991e-07
     -3.918899e-10     -8.868608e-10      1.479991e-07
     -8.835293e-10     -1.611113e-09      4.483182e-07
     -2.463281e-08     -3.128770e-09      4.117907e-07
      6.316437e-09      2.973851e-09      4.100877e-07
     -5.653685e-09      1.018643e-08      5.292689e-07
     -1.018643e-08      5.653685e-09      5.292689e-07
      6.316437e-09     -2.973851e-09      4.100877e-07
      2.102079e-09     -9.926167e-23      5.204081e-07
      2.557011e-11     -7.858216e-23      5.653928e-07
     -3.206401e-22     -2.557011e-11      5.653928e-07
      1.611113e-09      8.835293e-10      4.483182e-07
      2.238948e-09     -8.271806e-24      4.706860e-07
      3.918899e-10      8.868608e-10      1.479991e-07
      4.054721e-09     -7.413892e-09      2.152931e-07
     -4.393896e-09      3.054699e-08      4.856768e-07
     -2.597218e-23     -2.238948e-09      4.706860e-07
      2.743568e-10      2.487867e-10      5.119392e-07
      4.695001e-09     -4.695001e-09      2.005129e-07
      7.413892e-09     -4.054721e-09      2.152931e-07
     -4.272253e-09      4.272253e-09      4.861670e-07
      3.918899e-10     -8.868608e-10      1.479991e-07
      8.835293e-10     -1.611113e-09      4.483182e-07
     -1.169346e-22     -1.215892e-09      5.461063e-07
     -7.413892e-09     -4.054721e-09      2.152931e-07
     -4.695001e-09     -4.695001e-09      2.005129e-07
     -2.973851e-09     -6.316437e-09      4.100877e-07
      3.128770e-09      2.463281e-08      4.117907e-07
      4.393896e-09      3.054699e-08      4.856768e-07
      4.393896e-09     -3.054699e-08      4.856768e-07
      3.128770e-09     -2.463281e-08      4.117907e-07
      2.463281e-08     -3.128770e-09      4.117907e-07
      2.301679e-08     -5.030590e-09      3.884928e-07
     -5.353995e-09     -1.961515e-11      4.881836e-07
     -6.316437e-09     -2.973851e-09      4.100877e-07
     -2.238948e-09      1.390697e-23      4.706860e-07
     -8.868608e-10      3.918899e-10      1.479991e-07
     -5.914181e-09      5.914181e-09      2.261411e-07
     -3.045488e-09     -2.123843e-10      4.471524e-07
     -5.353995e-09      1.961515e-11      4.881836e-07
     -4.695001e-09      4.695001e-09      2.005129e-07
     -2.973851e-09      6.316437e-09      4.100877e-07
      2.123843e-10      3.045488e-09      4.471524e-07
      2.743568e-10     -2.487867e-10      5.119392e-07
     -2.652148e-22      2.102079e-09      5.204081e-07
     -2.557011e-11      1.664701e-22      5.653928e-07
      2.487867e-10     -2.743568e-10      5.119392e-07
     -1.611113e-09      8.835293e-10      4.483182e-07
      3.054699e-08     -4.393896e-09      4.856768e-07
      6.519147e-24      2.238948e-09      4.706860e-07
     -2.743568e-10     -2.487867e-10      5.119392e-07
     -1.018643e-08      1.018643e-08      5.637775e-07
      8.868608e-10      3.918899e-10      1.479991e-07
      2.487867e-10      2.743568e-10      5.119392e-07
     -2.102079e-09      2.690405e-22      5.204081e-07
     -3.045488e-09      2.123843e-10      4.471524e-07
     -6.316437e-09      2.973851e-09      4.100877e-07
     -3.918899e-10      8.868608e-10      1.479991e-07
     -2.716654e-22      2.557011e-11      5.653928e-07
Rotation_Load_Case01            3         169 double
      1.746878e-08      5.650047e-09     -4.652264e-11
      3.500766e-09      3.500766e-09     -2.619624e-24
      5.650047e-09      1.746878e-08      4.652264e-11
      4.037275e-10      4.170855e-09     -1.694295e-11
      2.933858e-10     -6.923312e-24     -6.532728e-24
      4.037275e-10     -4.170855e-09      1.694295e-11
      3.500766e-09     -3.500766e-09     -5.610934e-24
      6.106224e-09     -6.106224e-09     -5.010542e-24
     -2.547593e-23     -2.595158e-23     -1.106051e-23
     -6.106224e-09     -6.106224e-09     -5.115757e-24
     -2.549646e-09     -3.305734e-23     -4.073299e-24
     -6.106224e-09      6.106224e-09      1.238146e-24
     -5.650047e-09      1.746878e-08     -4.652264e-11
     -4.037275e-10      4.170855e-09      1.694295e-11
     -9.847247e-10      9.847247e-10     -3.980807e-24
      0.000000e+00      0.000000e+00      0.000000e+00
     -4.170855e-09      4.037275e-10     -1.694295e-11
     -3.500766e-09      3.500766e-09     -3.743315e-24
      4.073198e-24      2.549646e-09      3.803092e-24
      4.170855e-09      4.037275e-10      1.694295e-11
      6.187939e-24      2.933858e-10     -4.859686e-24
     -1.746878e-08      5.650047e-09      4.652264e-11
      2.549646e-09     -1.721183e-23     -3.421814e-24
      5.650047e-09     -1.746878e-08     -4.652264e-11
      9.847247e-10      9.847247e-10     -2.946831e-24
      0.000000e+00      0.000000e+00      0.000000e+00
      6.106224e-09      6.106224e-09     -2.088531e-24
      0.000000e+00      0.000000e+00      0.000000e+00
      4.170855e-09     -4.037275e-10     -1.694295e-11
      1.746878e-08     -5.650047e-09      4.652264e-11
      3.311478e-23     -2.933858e-10      1.813497e-25
     -1.746878e-08     -5.650047e-09     -4.652264e-11
     -4.170855e-09     -4.037275e-10      1.694295e-11
      0.000000e+00      0.000000e+00      0.000000e+00
     -4.037275e-10     -4.170855e-09     -1.694295e-11
     -2.933858e-10      2.031966e-23     -9.291545e-24
      7.601937e-24     -2.549646e-09     -2.427016e-24
     -3.500766e-09     -3.500766e-09     -5.036795e-24
     -5.650047e-09     -1.746878e-08      4.652264e-11
      9.847247e-10     -9.847247e-10      2.159636e-24
     -9.847247e-10     -9.847247e-10     -4.603212e-24
     -2.778137e-09      6.724677e-09      7.835267e-09
      6.724677e-09     -2.778137e-09     -7.835267e-09
     -6.814175e-09     -4.565050e-09      3.934850e-09
      3.485567e-10      4.620159e-09     -1.822647e-10
      3.485567e-10     -4.620159e-09      1.822647e-10
      1.257534e-09     -3.835811e-09     -4.833153e-11
     -5.910735e-10      5.910735e-10     -2.458116e-23
      1.008185e-09     -1.008185e-09      3.544113e-23
     -1.008185e-09     -1.008185e-09     -2.513611e-23
      1.223045e-10     -2.093819e-09      3.825117e-09
      1.223045e-10      2.093819e-09     -3.825117e-09
     -6.978412e-09      1.178750e-08      4.403907e-11
      6.814175e-09     -4.565050e-09     -3.934850e-09
     -6.942261e-10      2.003744e-09     -5.907705e-11
      1.541336e-08     -1.541336e-08      3.835041e-24
     -1.630860e-08     -1.609996e-08      1.461361e-09
     -3.835811e-09      1.257534e-09      4.833153e-11
     -4.134991e-09      3.025206e-09      4.498904e-11
      4.134991e-09      3.025206e-09     -4.498904e-11
      3.835811e-09      1.257534e-09     -4.833153e-11
      4.620159e-09      3.485567e-10      1.822647e-10
     -4.620159e-09      3.485567e-10     -1.822647e-10
      4.565050e-09     -6.814175e-09      3.934850e-09
      2.778137e-09      6.724677e-09     -7.835267e-09
     -1.677089e-08      1.677089e-08     -8.373473e-24
      1.609996e-08      1.630860e-08     -1.461361e-09
     -4.565050e-09     -6.814175e-09     -3.934850e-09
      5.032753e-09     -2.153834e-09     -6.265023e-09
      3.025206e-09      4.134991e-09      4.498904e-11
      8.702096e-10      6.242861e-24      2.171349e-24
     -2.153834e-09      5.032753e-09      6.265023e-09
      2.074889e-09      3.146729e-09     -2.495950e-09
      2.074889e-09     -3.146729e-09      2.495950e-09
     -2.153834e-09     -5.032753e-09     -6.265023e-09
      6.942261e-10      2.003744e-09      5.907705e-11
      1.257534e-09      3.835811e-09      4.833153e-11
      1.677089e-08      1.677089e-08      1.937622e-23
      2.438347e-08      2.825023e-09     -1.388444e-10
      1.178750e-08      6.978412e-09      4.403907e-11
      4.628334e-23      6.106224e-09     -1.427412e-23
     -2.093819e-09     -1.223045e-10      3.825117e-09
     -3.146729e-09      2.074889e-09     -2.495950e-09
     -5.032753e-09     -2.153834e-09      6.265023e-09
     -6.814175e-09      4.565050e-09     -3.934850e-09
      6.724677e-09      2.778137e-09      7.835267e-09
      1.677089e-08     -1.677089e-08      2.222398e-23
      1.630860e-08      1.609996e-08      1.461361e-09
     -4.565050e-09      6.814175e-09      3.934850e-09
      5.032753e-09      2.153834e-09      6.265023e-09
     -5.032753e-09      2.153834e-09     -6.265023e-09
      4.565050e-09      6.814175e-09     -3.934850e-09
     -1.630860e-08      1.609996e-08     -1.461361e-09
      1.609996e-08     -1.630860e-08      1.461361e-09
     -3.485567e-10     -4.620159e-09     -1.822647e-10
     -3.485567e-10      4.620159e-09      1.822647e-10
     -1.257534e-09      3.835811e-09     -4.833153e-11
     -1.223045e-10     -2.093819e-09     -3.825117e-09
      2.093819e-09      1.223045e-10      3.825117e-09
     -2.093819e-09      1.223045e-10     -3.825117e-09
     -1.008185e-09      1.008185e-09     -2.430302e-23
      5.910735e-10     -5.910735e-10     -5.033559e-24
      5.910735e-10      5.910735e-10      8.841704e-24
     -6.978412e-09     -1.178750e-08     -4.403907e-11
      2.153834e-09     -5.032753e-09      6.265023e-09
     -2.074889e-09      3.146729e-09      2.495950e-09
      2.153834e-09      5.032753e-09     -6.265023e-09
     -6.106224e-09     -6.119443e-23     -6.578671e-24
      1.672456e-23     -6.106224e-09     -1.256281e-23
      1.178750e-08     -6.978412e-09     -4.403907e-11
      2.438347e-08     -2.825023e-09      1.388444e-10
      2.825023e-09     -2.438347e-08     -1.388444e-10
      6.978412e-09     -1.178750e-08      4.403907e-11
     -6.724677e-09     -2.778137e-09      7.835267e-09
     -2.003744e-09      6.942261e-10      5.907705e-11
      2.093819e-09     -1.223045e-10     -3.825117e-09
     -1.223045e-10      2.093819e-09      3.825117e-09
      2.003744e-09      6.942261e-10     -5.907705e-11