TITLE = "Beam Element Example"
VARIABLES = "X", "Y", "Z", "URX", "URY", "URZ", "FX", "FY", "FZ", "MX", "MY", "MZ"
ZONE T="Beam Element", N=   13, E=   12, F=FEPOINT, ET=LINESEG
      0.000000e+00      0.000000e+00      0.000000e+00      0.000000e+00      0.000000e+00      0.000000e+00      1.591551e+03      3.183102e+04     -2.738371e-03      5.570428e+04     -1.273241e+05      4.792151e-03
      5.000000e-01      1.458917e-05     -1.255083e-12     -1.818909e-04      4.792136e-12      5.570410e-05      1.591551e+03      3.183102e+04     -2.738371e-03      4.774652e+04     -1.273241e+05      4.107559e-03
      1.000000e+00      5.305152e-05     -4.563939e-12     -3.637819e-04      8.215091e-12      9.549274e-05      1.591551e+03      3.183102e+04     -2.738371e-03      3.183102e+04     -1.273241e+05      2.738373e-03
      1.500000e+00      1.074293e-04     -9.241977e-12     -5.456728e-04      1.026886e-11      1.193659e-04      1.591551e+03      3.183102e+04     -2.738371e-03      1.591551e+04     -1.273241e+05      1.369187e-03
      2.000000e+00      1.697649e-04     -1.460461e-11     -7.275637e-04      1.095346e-11      1.273237e-04      7.957754e+02      1.989437e+04      3.978863e+03      3.978877e+03     -7.858277e+04      3.422975e-04
      2.000064e+00     -4.600416e-01      3.813442e+00     -1.492147e+01      1.123814e-11      1.273237e-04      6.491826e-10      7.957728e+03      7.957728e+03      9.773347e-10     -2.785205e+04      4.379856e-10
      2.000127e+00     -9.202530e-01      1.458990e+01     -2.785278e+01      1.152282e-11      1.273237e-04      6.491835e-10      7.957728e+03      7.957728e+03      6.527435e-10     -2.387318e+04      4.379853e-10
      2.000191e+00     -1.380464e+00      3.133465e+01     -3.879465e+01      1.180751e-11      1.273237e-04      6.491839e-10      7.957728e+03      7.957728e+03      3.281522e-10     -1.989432e+04      4.379856e-10
      2.000255e+00     -1.840676e+00      5.305298e+01     -4.774710e+01      1.209219e-11      1.273237e-04      1.092940e-09      1.989437e+04      3.978862e+03      9.016586e-11     -3.680458e+04      9.269675e-10
      2.000255e+00      2.203289e+01      5.355298e+01     -4.774715e+01      1.209219e-11      1.273237e-04      2.136825e-09      3.183101e+04     -3.885622e-03      7.237535e-12     -4.774652e+04      1.057137e-09
      2.000255e+00      4.590647e+01      5.405298e+01     -4.774719e+01      1.209219e-11      1.273237e-04      2.199648e-09      3.183101e+04     -1.942811e-03     -7.237535e-12     -3.183102e+04      4.728991e-10
      2.000255e+00      6.978008e+01      5.455298e+01     -4.774722e+01      1.209219e-11      1.273237e-04      7.122741e-10      3.183101e+04      0.000000e+00     -1.447507e-11     -1.591551e+04      2.108451e-10
      2.000255e+00      9.365369e+01      5.505298e+01     -4.774722e+01      1.209219e-11      1.273237e-04     -2.377935e-10      3.183102e+04      0.000000e+00     -1.447507e-11     -7.957754e+03      1.742169e-10
   1    2
   2    3
  3    4
4    5
5    6
 6    7
  7    8
  8    9
   9   10
10   11
   11   12
  12   13
